created by fftool

1024 atoms
768 bonds
256 angles
3 atom types
2 bond types
1 angle types
0.000000 19.705642 xlo xhi
0.000000 19.705642 ylo yhi
0.000000 19.705642 zlo zhi

Masses

   1 1.520e+01  # Ow DC
   2 1.008e+00  # Hw
   3 8.000e-01  # Ow DP

Bond Coeffs

   1   517.630258     1.000000  # Ow-Hw
   2   500.000000     0.000000  # Ow DC-DP

Angle Coeffs

   1    37.950526   109.470000  # Hw-Ow-Hw

Atoms

      1       1    1   1.3473  8.131930e+00  6.161630e+00  7.082520e+00  # Ow PSPC DC
      2       1    2   0.3345  8.081400e+00  5.972859e+00  8.049030e+00  # Hw PSPC
      3       1    2   0.3345  7.779950e+00  7.076570e+00  6.965100e+00  # Hw PSPC
      4       2    1   1.3473  2.503428e+00  8.391170e+00  5.636660e+00  # Ow PSPC DC
      5       2    2   0.3345  1.908991e+00  7.723509e+00  6.055930e+00  # Hw PSPC
      6       2    2   0.3345  2.119270e+00  8.574840e+00  4.746350e+00  # Hw PSPC
      7       3    1   1.3473  6.914970e-01  6.525410e+00 -4.993000e-02  # Ow PSPC DC
      8       3    2   0.3345  1.154160e+00  7.396619e+00 -1.060100e-02  # Hw PSPC
      9       3    2   0.3345  1.107580e+00  6.028950e+00 -7.924010e-01  # Hw PSPC
     10       4    1   1.3473  1.877240e+01  1.784210e+01  6.037579e+00  # Ow PSPC DC
     11       4    2   0.3345  1.970000e+01  1.816600e+01  6.132900e+00  # Hw PSPC
     12       4    2   0.3345  1.824430e+01  1.832690e+01  6.715120e+00  # Hw PSPC
     13       5    1   1.3473  1.239890e+01  1.792750e+01  6.254900e+00  # Ow PSPC DC
     14       5    2   0.3345  1.251690e+01  1.868160e+01  6.882140e+00  # Hw PSPC
     15       5    2   0.3345  1.189920e+01  1.723750e+01  6.750690e+00  # Hw PSPC
     16       6    1   1.3473  9.610830e+00  1.930069e+00  1.645960e+01  # Ow PSPC DC
     17       6    2   0.3345  9.142479e+00  2.679220e+00  1.602210e+01  # Hw PSPC
     18       6    2   0.3345  1.035700e+01  2.333328e+00  1.696510e+01  # Hw PSPC
     19       7    1   1.3473  1.413940e+01 -6.329000e-01  9.945969e+00  # Ow PSPC DC
     20       7    2   0.3345  1.486430e+01  3.680600e-02  9.948119e+00  # Hw PSPC
     21       7    2   0.3345  1.348950e+01 -3.299010e-01  9.270300e+00  # Hw PSPC
     22       8    1   1.3473  3.765169e+00 -2.107010e-01  1.227570e+01  # Ow PSPC DC
     23       8    2   0.3345  3.986210e+00 -1.149000e+00  1.249830e+01  # Hw PSPC
     24       8    2   0.3345  4.587739e+00  3.068990e-01  1.244970e+01  # Hw PSPC
     25       9    1   1.3473  8.392000e+00  1.614280e+01  1.809920e+01  # Ow PSPC DC
     26       9    2   0.3345  8.233479e+00  1.689140e+01  1.872310e+01  # Hw PSPC
     27       9    2   0.3345  7.691050e+00  1.621350e+01  1.740770e+01  # Hw PSPC
     28      10    1   1.3473  4.557030e-01  1.493789e+00  6.160580e+00  # Ow PSPC DC
     29      10    2   0.3345  8.424810e-01  2.217760e+00  5.613339e+00  # Hw PSPC
     30      10    2   0.3345  2.146120e-01  7.747770e-01  5.525590e+00  # Hw PSPC
     31      11    1   1.3473  7.511520e-01  5.401569e+00  1.444920e+01  # Ow PSPC DC
     32      11    2   0.3345  1.525440e+00  5.981650e+00  1.464570e+01  # Hw PSPC
     33      11    2   0.3345  1.066960e+00  4.475230e+00  1.457720e+01  # Hw PSPC
     34      12    1   1.3473 -2.828010e-01  4.651820e+00  2.237601e+00  # Ow PSPC DC
     35      12    2   0.3345  6.092090e-01  4.616390e+00  2.660820e+00  # Hw PSPC
     36      12    2   0.3345 -1.894020e-01  5.257970e+00  1.463091e+00  # Hw PSPC
     37      13    1   1.3473  6.120049e+00  2.926850e+00  6.100610e+00  # Ow PSPC DC
     38      13    2   0.3345  6.869960e+00  2.964750e+00  6.742579e+00  # Hw PSPC
     39      13    2   0.3345  5.388040e+00  3.448020e+00  6.509350e+00  # Hw PSPC
     40      14    1   1.3473  1.253090e+01  1.391400e+01  1.994136e+01  # Ow PSPC DC
     41      14    2   0.3345  1.200730e+01  1.467300e+01  2.028986e+01  # Hw PSPC
     42      14    2   0.3345  1.201440e+01  1.355790e+01  1.917610e+01  # Hw PSPC
     43      15    1   1.3473  1.603960e+01  1.799020e+01  1.176850e+01  # Ow PSPC DC
     44      15    2   0.3345  1.525800e+01  1.818920e+01  1.120000e+01  # Hw PSPC
     45      15    2   0.3345  1.579520e+01  1.829170e+01  1.267810e+01  # Hw PSPC
     46      16    1   1.3473  4.688510e+00  1.569300e+01  1.875430e+01  # Ow PSPC DC
     47      16    2   0.3345  3.729290e+00  1.552400e+01  1.859240e+01  # Hw PSPC
     48      16    2   0.3345  4.853930e+00  1.544680e+01  1.969390e+01  # Hw PSPC
     49      17    1   1.3473  6.784649e+00  2.726770e+00  8.933970e+00  # Ow PSPC DC
     50      17    2   0.3345  6.935580e+00  2.279450e+00  9.800330e+00  # Hw PSPC
     51      17    2   0.3345  5.862420e+00  2.493160e+00  8.665999e+00  # Hw PSPC
     52      18    1   1.3473  1.478520e+01  7.272590e+00  7.495979e+00  # Ow PSPC DC
     53      18    2   0.3345  1.381650e+01  7.384019e+00  7.633699e+00  # Hw PSPC
     54      18    2   0.3345  1.499520e+01  7.722860e+00  6.643689e+00  # Hw PSPC
     55      19    1   1.3473  1.948519e+00  1.437640e+01  1.065050e+01  # Ow PSPC DC
     56      19    2   0.3345  1.423939e+00  1.403220e+01  9.891989e+00  # Hw PSPC
     57      19    2   0.3345  1.646351e+00  1.530460e+01  1.079510e+01  # Hw PSPC
     58      20    1   1.3473  9.065140e+00  9.669400e+00  3.609018e+00  # Ow PSPC DC
     59      20    2   0.3345  9.115930e+00  1.023010e+01  2.798058e+00  # Hw PSPC
     60      20    2   0.3345  8.228540e+00  9.925409e+00  4.064540e+00  # Hw PSPC
     61      21    1   1.3473  1.201680e+01  3.644100e+00  1.639390e+01  # Ow PSPC DC
     62      21    2   0.3345  1.244100e+01  4.531029e+00  1.631260e+01  # Hw PSPC
     63      21    2   0.3345  1.260170e+01  3.117769e+00  1.699130e+01  # Hw PSPC
     64      22    1   1.3473  2.215990e+00  5.726100e+00  1.755590e+01  # Ow PSPC DC
     65      22    2   0.3345  1.448890e+00  5.318550e+00  1.708160e+01  # Hw PSPC
     66      22    2   0.3345  2.606590e+00  6.377220e+00  1.692990e+01  # Hw PSPC
     67      23    1   1.3473  1.919920e+01  1.506310e+01  1.415610e+00  # Ow PSPC DC
     68      23    2   0.3345  1.947330e+01  1.592700e+01  1.808220e+00  # Hw PSPC
     69      23    2   0.3345  1.916880e+01  1.442270e+01  2.166550e+00  # Hw PSPC
     70      24    1   1.3473  1.501870e+01  1.661240e+01  8.207510e+00  # Ow PSPC DC
     71      24    2   0.3345  1.445530e+01  1.694630e+01  8.947070e+00  # Hw PSPC
     72      24    2   0.3345  1.582350e+01  1.718440e+01  8.201820e+00  # Hw PSPC
     73      25    1   1.3473  8.539100e+00  6.428930e+00  1.826280e+01  # Ow PSPC DC
     74      25    2   0.3345  9.451570e+00  6.345180e+00  1.863320e+01  # Hw PSPC
     75      25    2   0.3345  8.146390e+00  7.226789e+00  1.869080e+01  # Hw PSPC
     76      26    1   1.3473  1.897820e+01  1.861570e+01  3.526990e+00  # Ow PSPC DC
     77      26    2   0.3345  1.967290e+01  1.808670e+01  3.068300e+00  # Hw PSPC
     78      26    2   0.3345  1.885270e+01  1.819280e+01  4.410009e+00  # Hw PSPC
     79      27    1   1.3473  1.211280e+01  6.262438e+00  1.950010e+01  # Ow PSPC DC
     80      27    2   0.3345  1.131540e+01  5.715110e+00  1.930410e+01  # Hw PSPC
     81      27    2   0.3345  1.238740e+01  6.023870e+00  2.041744e+01  # Hw PSPC
     82      28    1   1.3473  6.650420e+00  1.076770e+01  9.564260e+00  # Ow PSPC DC
     83      28    2   0.3345  6.027699e+00  1.009130e+01  9.919980e+00  # Hw PSPC
     84      28    2   0.3345  6.292160e+00  1.164330e+01  9.845950e+00  # Hw PSPC
     85      29    1   1.3473  1.050700e+01  1.057240e+01  1.725120e+01  # Ow PSPC DC
     86      29    2   0.3345  1.002170e+01  9.821100e+00  1.683460e+01  # Hw PSPC
     87      29    2   0.3345  1.134850e+01  1.019040e+01  1.760070e+01  # Hw PSPC
     88      30    1   1.3473  1.198940e+01  9.693781e+00  1.471350e+01  # Ow PSPC DC
     89      30    2   0.3345  1.201490e+01  1.003440e+01  1.378820e+01  # Hw PSPC
     90      30    2   0.3345  1.121020e+01  9.090039e+00  1.476020e+01  # Hw PSPC
     91      31    1   1.3473  3.098610e+00  6.955330e+00  1.086900e+01  # Ow PSPC DC
     92      31    2   0.3345  2.417140e+00  6.955600e+00  1.015310e+01  # Hw PSPC
     93      31    2   0.3345  3.848480e+00  6.413011e+00  1.052840e+01  # Hw PSPC
     94      32    1   1.3473  3.673370e-01  1.805620e+01  1.447120e+01  # Ow PSPC DC
     95      32    2   0.3345 -6.084010e-01  1.790940e+01  1.447410e+01  # Hw PSPC
     96      32    2   0.3345  5.352570e-01  1.875310e+01  1.379270e+01  # Hw PSPC
     97      33    1   1.3473  1.809000e+01  1.616170e+01  8.634480e+00  # Ow PSPC DC
     98      33    2   0.3345  1.784430e+01  1.706000e+01  8.307320e+00  # Hw PSPC
     99      33    2   0.3345  1.885100e+01  1.629780e+01  9.250550e+00  # Hw PSPC
    100      34    1   1.3473  7.092939e+00  3.305189e+00  1.106090e+00  # Ow PSPC DC
    101      34    2   0.3345  6.883910e+00  3.554571e+00  2.037260e+00  # Hw PSPC
    102      34    2   0.3345  6.430590e+00  3.768559e+00  5.430220e-01  # Hw PSPC
    103      35    1   1.3473  1.540040e+01  1.551000e+01  2.186450e-01  # Ow PSPC DC
    104      35    2   0.3345  1.464830e+01  1.527290e+01  8.147510e-01  # Hw PSPC
    105      35    2   0.3345  1.580770e+01  1.632100e+01  6.109760e-01  # Hw PSPC
    106      36    1   1.3473  1.711780e+01  5.835799e+00  7.575009e+00  # Ow PSPC DC
    107      36    2   0.3345  1.645500e+01  6.563930e+00  7.533480e+00  # Hw PSPC
    108      36    2   0.3345  1.752910e+01  5.789148e+00  6.679020e+00  # Hw PSPC
    109      37    1   1.3473  1.254220e+01  3.356390e+00  9.067900e+00  # Ow PSPC DC
    110      37    2   0.3345  1.201980e+01  2.539649e+00  9.250070e+00  # Hw PSPC
    111      37    2   0.3345  1.198760e+01  3.900068e+00  8.454950e+00  # Hw PSPC
    112      38    1   1.3473  7.658480e-01  1.687090e+01  1.074590e+01  # Ow PSPC DC
    113      38    2   0.3345  5.631500e-02  1.676190e+01  1.142350e+01  # Hw PSPC
    114      38    2   0.3345  6.896090e-01  1.779860e+01  1.041940e+01  # Hw PSPC
    115      39    1   1.3473  5.015000e+00  1.074370e+01  1.831370e+01  # Ow PSPC DC
    116      39    2   0.3345  5.916150e+00  1.112060e+01  1.819170e+01  # Hw PSPC
    117      39    2   0.3345  4.602850e+00  1.124950e+01  1.905350e+01  # Hw PSPC
    118      40    1   1.3473  1.521880e+01  1.119920e+01  7.687210e+00  # Ow PSPC DC
    119      40    2   0.3345  1.525730e+01  1.217330e+01  7.533530e+00  # Hw PSPC
    120      40    2   0.3345  1.532250e+01  1.107350e+01  8.660469e+00  # Hw PSPC
    121      41    1   1.3473  1.822850e+01  6.103438e+00  1.334340e+01  # Ow PSPC DC
    122      41    2   0.3345  1.836490e+01  6.936019e+00  1.385720e+01  # Hw PSPC
    123      41    2   0.3345  1.900810e+01  5.532719e+00  1.353880e+01  # Hw PSPC
    124      42    1   1.3473  1.826420e+01  1.134920e+01  1.945730e+01  # Ow PSPC DC
    125      42    2   0.3345  1.768730e+01  1.156180e+01  2.023146e+01  # Hw PSPC
    126      42    2   0.3345  1.792650e+01  1.049500e+01  1.909620e+01  # Hw PSPC
    127      43    1   1.3473  8.151600e-01  2.020333e+01  1.259760e+01  # Ow PSPC DC
    128      43    2   0.3345  1.162680e+00  2.109756e+01  1.236870e+01  # Hw PSPC
    129      43    2   0.3345  1.593701e+00  1.959600e+01  1.257720e+01  # Hw PSPC
    130      44    1   1.3473  1.209920e+01  1.093270e+01  9.386540e-01  # Ow PSPC DC
    131      44    2   0.3345  1.259320e+01  1.178760e+01  8.919870e-01  # Hw PSPC
    132      44    2   0.3345  1.277500e+01  1.024040e+01  1.130810e+00  # Hw PSPC
    133      45    1   1.3473  1.807890e+01  7.146490e+00  1.041390e+00  # Ow PSPC DC
    134      45    2   0.3345  1.891160e+01  6.730420e+00  7.183810e-01  # Hw PSPC
    135      45    2   0.3345  1.778180e+01  7.755350e+00  3.220660e-01  # Hw PSPC
    136      46    1   1.3473  1.541530e+01  6.650090e+00  1.946470e+00  # Ow PSPC DC
    137      46    2   0.3345  1.523740e+01  5.810110e+00  1.463020e+00  # Hw PSPC
    138      46    2   0.3345  1.636520e+01  6.863230e+00  1.784180e+00  # Hw PSPC
    139      47    1   1.3473  5.766340e+00  1.489860e+01  1.626860e+01  # Ow PSPC DC
    140      47    2   0.3345  5.562600e+00  1.546930e+01  1.704770e+01  # Hw PSPC
    141      47    2   0.3345  4.950220e+00  1.489580e+01  1.571350e+01  # Hw PSPC
    142      48    1   1.3473  1.747810e+01  8.460760e+00  3.428281e+00  # Ow PSPC DC
    143      48    2   0.3345  1.717870e+01  9.381349e+00  3.235061e+00  # Hw PSPC
    144      48    2   0.3345  1.770960e+01  8.062770e+00  2.554180e+00  # Hw PSPC
    145      49    1   1.3473  4.244980e+00  1.491460e+01  1.199040e+01  # Ow PSPC DC
    146      49    2   0.3345  4.024200e+00  1.510910e+01  1.293380e+01  # Hw PSPC
    147      49    2   0.3345  3.383400e+00  1.487850e+01  1.151240e+01  # Hw PSPC
    148      50    1   1.3473  8.776340e-01  6.227650e+00  6.412220e+00  # Ow PSPC DC
    149      50    2   0.3345  4.948600e-02  6.217080e+00  5.873590e+00  # Hw PSPC
    150      50    2   0.3345  5.958120e-01  6.067060e+00  7.344330e+00  # Hw PSPC
    151      51    1   1.3473  1.217060e+01  1.353820e+01  1.125850e+01  # Ow PSPC DC
    152      51    2   0.3345  1.243110e+01  1.347300e+01  1.220810e+01  # Hw PSPC
    153      51    2   0.3345  1.296530e+01  1.327310e+01  1.073890e+01  # Hw PSPC
    154      52    1   1.3473  5.556940e+00  1.495590e+00  1.356350e+01  # Ow PSPC DC
    155      52    2   0.3345  5.870970e+00  1.150550e+00  1.443330e+01  # Hw PSPC
    156      52    2   0.3345  5.620940e+00  2.479060e+00  1.362300e+01  # Hw PSPC
    157      53    1   1.3473  1.474970e+01  4.509230e+00  1.020970e-01  # Ow PSPC DC
    158      53    2   0.3345  1.498710e+01  5.050749e+00 -6.894020e-01  # Hw PSPC
    159      53    2   0.3345  1.463710e+01  3.585720e+00 -2.255000e-01  # Hw PSPC
    160      54    1   1.3473  1.117690e+01  1.868250e+01  3.755480e+00  # Ow PSPC DC
    161      54    2   0.3345  1.163860e+01  1.850990e+01  4.610840e+00  # Hw PSPC
    162      54    2   0.3345  1.179850e+01  1.838770e+01  3.047670e+00  # Hw PSPC
    163      55    1   1.3473  7.619760e+00  1.133490e+01  1.456360e+01  # Ow PSPC DC
    164      55    2   0.3345  7.692190e+00  1.228510e+01  1.481910e+01  # Hw PSPC
    165      55    2   0.3345  8.006590e+00  1.126670e+01  1.365810e+01  # Hw PSPC
    166      56    1   1.3473  6.002560e-01  1.727850e+00  1.131130e+00  # Ow PSPC DC
    167      56    2   0.3345  8.317200e-01  2.517980e+00  5.882690e-01  # Hw PSPC
    168      56    2   0.3345  1.459250e+00  1.304280e+00  1.373830e+00  # Hw PSPC
    169      57    1   1.3473  1.498400e+01  1.391660e+01  7.376840e+00  # Ow PSPC DC
    170      57    2   0.3345  1.489680e+01  1.487050e+01  7.610439e+00  # Hw PSPC
    171      57    2   0.3345  1.447200e+01  1.379090e+01  6.543710e+00  # Hw PSPC
    172      58    1   1.3473  1.386270e+01  1.956120e+01  1.688540e+01  # Ow PSPC DC
    173      58    2   0.3345  1.324430e+01  1.906200e+01  1.747290e+01  # Hw PSPC
    174      58    2   0.3345  1.469440e+01  1.967580e+01  1.740750e+01  # Hw PSPC
    175      59    1   1.3473  1.478560e+01  1.585000e+01  2.910039e+00  # Ow PSPC DC
    176      59    2   0.3345  1.482070e+01  1.677130e+01  3.261590e+00  # Hw PSPC
    177      59    2   0.3345  1.385160e+01  1.554880e+01  3.037219e+00  # Hw PSPC
    178      60    1   1.3473  1.150340e+01  1.561820e+01  3.999610e+00  # Ow PSPC DC
    179      60    2   0.3345  1.162740e+01  1.577760e+01  4.965889e+00  # Hw PSPC
    180      60    2   0.3345  1.085190e+01  1.487880e+01  3.929230e+00  # Hw PSPC
    181      61    1   1.3473  6.674280e+00  1.764170e-01  6.127090e+00  # Ow PSPC DC
    182      61    2   0.3345  7.523200e+00  1.584980e-01  5.625209e+00  # Hw PSPC
    183      61    2   0.3345  6.494960e+00  1.126859e+00  6.324510e+00  # Hw PSPC
    184      62    1   1.3473  9.899390e+00  2.635959e+00  1.097980e+01  # Ow PSPC DC
    185      62    2   0.3345  9.266769e+00  2.003709e+00  1.139740e+01  # Hw PSPC
    186      62    2   0.3345  1.047780e+01  2.962450e+00  1.171060e+01  # Hw PSPC
    187      63    1   1.3473  1.886650e+01  1.011590e+01  1.249130e+01  # Ow PSPC DC
    188      63    2   0.3345  1.793870e+01  9.969570e+00  1.280220e+01  # Hw PSPC
    189      63    2   0.3345  1.881630e+01  1.084140e+01  1.182570e+01  # Hw PSPC
    190      64    1   1.3473  2.457120e+00  4.203630e+00  2.134179e+00  # Ow PSPC DC
    191      64    2   0.3345  3.422830e+00  4.370470e+00  2.256520e+00  # Hw PSPC
    192      64    2   0.3345  2.353760e+00  3.875430e+00  1.209589e+00  # Hw PSPC
    193      65    1   1.3473  3.460340e+00  1.856590e+01  8.684799e+00  # Ow PSPC DC
    194      65    2   0.3345  3.813859e+00  1.946070e+01  8.906650e+00  # Hw PSPC
    195      65    2   0.3345  2.659758e+00  1.844270e+01  9.247240e+00  # Hw PSPC
    196      66    1   1.3473  2.189209e+00  7.815460e+00  1.330210e+01  # Ow PSPC DC
    197      66    2   0.3345  2.647009e+00  8.688930e+00  1.325630e+01  # Hw PSPC
    198      66    2   0.3345  2.465841e+00  7.320429e+00  1.249570e+01  # Hw PSPC
    199      67    1   1.3473  5.458660e+00  5.815220e+00  9.743979e+00  # Ow PSPC DC
    200      67    2   0.3345  6.404550e+00  6.088870e+00  9.778149e+00  # Hw PSPC
    201      67    2   0.3345  5.195810e+00  5.860209e+00  8.792910e+00  # Hw PSPC
    202      68    1   1.3473  1.686350e+00  2.866750e+00  1.512880e+01  # Ow PSPC DC
    203      68    2   0.3345  9.240530e-01  2.397100e+00  1.554590e+01  # Hw PSPC
    204      68    2   0.3345  2.461620e+00  2.697790e+00  1.571750e+01  # Hw PSPC
    205      69    1   1.3473  1.262620e+01  6.344480e+00  1.664360e+01  # Ow PSPC DC
    206      69    2   0.3345  1.228510e+01  6.745770e+00  1.747810e+01  # Hw PSPC
    207      69    2   0.3345  1.358420e+01  6.580729e+00  1.660110e+01  # Hw PSPC
    208      70    1   1.3473  8.389789e+00  1.218260e+00  5.995030e-01  # Ow PSPC DC
    209      70    2   0.3345  9.160670e+00  1.277030e+00  1.212660e+00  # Hw PSPC
    210      70    2   0.3345  7.869170e+00  2.043290e+00  7.342120e-01  # Hw PSPC
    211      71    1   1.3473  5.187749e+00  1.093010e+00  1.902720e+01  # Ow PSPC DC
    212      71    2   0.3345  5.486360e+00  1.924150e+00  1.858710e+01  # Hw PSPC
    213      71    2   0.3345  5.993989e+00  5.317040e-01  1.912310e+01  # Hw PSPC
    214      72    1   1.3473  1.843630e+01  9.462650e+00  9.159981e+00  # Ow PSPC DC
    215      72    2   0.3345  1.752390e+01  9.755230e+00  9.406340e+00  # Hw PSPC
    216      72    2   0.3345  1.863290e+01  8.683450e+00  9.731000e+00  # Hw PSPC
    217      73    1   1.3473  1.384730e+01  1.598000e+01  1.697480e+01  # Ow PSPC DC
    218      73    2   0.3345  1.305630e+01  1.617590e+01  1.753190e+01  # Hw PSPC
    219      73    2   0.3345  1.450780e+01  1.556350e+01  1.757870e+01  # Hw PSPC
    220      74    1   1.3473  9.550501e+00  1.268140e+01  1.219570e+01  # Ow PSPC DC
    221      74    2   0.3345  9.311251e+00  1.363490e+01  1.228320e+01  # Hw PSPC
    222      74    2   0.3345  1.049240e+01  1.266570e+01  1.189660e+01  # Hw PSPC
    223      75    1   1.3473  1.818490e+01  1.253320e+00  2.572420e+00  # Ow PSPC DC
    224      75    2   0.3345  1.837440e+01  3.908770e-01  3.014250e+00  # Hw PSPC
    225      75    2   0.3345  1.903810e+01  1.553010e+00  2.181770e+00  # Hw PSPC
    226      76    1   1.3473  1.222710e+01  2.299620e+00  6.292510e+00  # Ow PSPC DC
    227      76    2   0.3345  1.130810e+01  2.338480e+00  5.933320e+00  # Hw PSPC
    228      76    2   0.3345  1.264030e+01  3.168370e+00  6.077470e+00  # Hw PSPC
    229      77    1   1.3473  9.395720e+00  1.129910e+01  1.407270e+00  # Ow PSPC DC
    230      77    2   0.3345  1.034220e+01  1.125960e+01  1.127430e+00  # Hw PSPC
    231      77    2   0.3345  9.008471e+00  1.207900e+01  9.433640e-01  # Hw PSPC
    232      78    1   1.3473  2.772230e+00  1.419750e+01  2.632810e+00  # Ow PSPC DC
    233      78    2   0.3345  2.849400e+00  1.431960e+01  3.609250e+00  # Hw PSPC
    234      78    2   0.3345  1.806260e+00  1.411280e+01  2.445970e+00  # Hw PSPC
    235      79    1   1.3473  9.724220e+00  2.697910e+00  4.990830e+00  # Ow PSPC DC
    236      79    2   0.3345  9.744810e+00  3.077130e+00  4.080180e+00  # Hw PSPC
    237      79    2   0.3345  9.367899e+00  3.412040e+00  5.573480e+00  # Hw PSPC
    238      80    1   1.3473  8.928999e+00  1.446700e+01  4.604230e+00  # Ow PSPC DC
    239      80    2   0.3345  8.617280e+00  1.538020e+01  4.394660e+00  # Hw PSPC
    240      80    2   0.3345  8.114900e+00  1.394090e+01  4.794740e+00  # Hw PSPC
    241      81    1   1.3473  1.611450e+01  1.465210e+01  1.343610e+01  # Ow PSPC DC
    242      81    2   0.3345  1.529890e+01  1.457420e+01  1.398750e+01  # Hw PSPC
    243      81    2   0.3345  1.588430e+01  1.527490e+01  1.270280e+01  # Hw PSPC
    244      82    1   1.3473  1.299810e+01  2.924381e+00  2.527120e+00  # Ow PSPC DC
    245      82    2   0.3345  1.394360e+01  3.067419e+00  2.280410e+00  # Hw PSPC
    246      82    2   0.3345  1.279450e+01  3.599789e+00  3.218670e+00  # Hw PSPC
    247      83    1   1.3473  1.221750e+01  7.530749e+00  7.424630e+00  # Ow PSPC DC
    248      83    2   0.3345  1.162410e+01  6.747220e+00  7.336360e+00  # Hw PSPC
    249      83    2   0.3345  1.179820e+01  8.251660e+00  6.900040e+00  # Hw PSPC
    250      84    1   1.3473  9.018829e+00  1.964050e+01  5.136910e+00  # Ow PSPC DC
    251      84    2   0.3345  9.206890e+00  2.060908e+01  5.075140e+00  # Hw PSPC
    252      84    2   0.3345  9.870739e+00  1.918580e+01  4.943080e+00  # Hw PSPC
    253      85    1   1.3473  1.053670e+01  7.341239e+00  1.042080e+01  # Ow PSPC DC
    254      85    2   0.3345  1.134730e+01  6.828020e+00  1.018480e+01  # Hw PSPC
    255      85    2   0.3345  1.068300e+01  8.252690e+00  1.006940e+01  # Hw PSPC
    256      86    1   1.3473  8.726981e+00  5.916910e-01  1.346170e+01  # Ow PSPC DC
    257      86    2   0.3345  9.700681e+00  7.649110e-01  1.344300e+01  # Hw PSPC
    258      86    2   0.3345  8.556961e+00  1.029980e-01  1.430190e+01  # Hw PSPC
    259      87    1   1.3473  1.440470e+01  8.063300e+00  1.447270e+01  # Ow PSPC DC
    260      87    2   0.3345  1.403160e+01  7.593080e+00  1.369160e+01  # Hw PSPC
    261      87    2   0.3345  1.365820e+01  8.575700e+00  1.486600e+01  # Hw PSPC
    262      88    1   1.3473  8.680618e+00  1.520000e+01  1.231630e+01  # Ow PSPC DC
    263      88    2   0.3345  7.884629e+00  1.577490e+01  1.240900e+01  # Hw PSPC
    264      88    2   0.3345  9.459760e+00  1.578710e+01  1.246320e+01  # Hw PSPC
    265      89    1   1.3473  2.141299e+00  3.704518e+00  1.926750e+01  # Ow PSPC DC
    266      89    2   0.3345  2.123470e+00  2.963930e+00  1.861440e+01  # Hw PSPC
    267      89    2   0.3345  2.240410e+00  4.530651e+00  1.873880e+01  # Hw PSPC
    268      90    1   1.3473  1.704920e+01  3.834421e+00  3.696470e+00  # Ow PSPC DC
    269      90    2   0.3345  1.789630e+01  3.920510e+00  3.197890e+00  # Hw PSPC
    270      90    2   0.3345  1.659280e+01  3.043040e+00  3.320070e+00  # Hw PSPC
    271      91    1   1.3473  1.838480e+01  1.665530e+01  1.236760e+01  # Ow PSPC DC
    272      91    2   0.3345  1.761060e+01  1.700470e+01  1.186290e+01  # Hw PSPC
    273      91    2   0.3345  1.812290e+01  1.667980e+01  1.331760e+01  # Hw PSPC
    274      92    1   1.3473  1.554080e+01  5.869880e+00  1.747950e+01  # Ow PSPC DC
    275      92    2   0.3345  1.609820e+01  5.144760e+00  1.710290e+01  # Hw PSPC
    276      92    2   0.3345  1.588340e+01  6.706009e+00  1.708140e+01  # Hw PSPC
    277      93    1   1.3473  1.041200e+01  1.722600e+01  1.319630e+01  # Ow PSPC DC
    278      93    2   0.3345  1.043500e+01  1.756120e+01  1.412390e+01  # Hw PSPC
    279      93    2   0.3345  1.126650e+01  1.750120e+01  1.278640e+01  # Hw PSPC
    280      94    1   1.3473  8.750570e+00  1.818260e+01  1.070680e+01  # Ow PSPC DC
    281      94    2   0.3345  7.932930e+00  1.782000e+01  1.112420e+01  # Hw PSPC
    282      94    2   0.3345  9.473130e+00  1.804890e+01  1.136800e+01  # Hw PSPC
    283      95    1   1.3473  4.532270e+00  1.604830e+01  1.791548e+00  # Ow PSPC DC
    284      95    2   0.3345  4.023880e+00  1.520040e+01  1.821640e+00  # Hw PSPC
    285      95    2   0.3345  4.065940e+00  1.666420e+01  2.404078e+00  # Hw PSPC
    286      96    1   1.3473  1.081760e+01  1.303470e+01  1.623390e+01  # Ow PSPC DC
    287      96    2   0.3345  1.091040e+01  1.208990e+01  1.649830e+01  # Hw PSPC
    288      96    2   0.3345  9.948489e+00  1.310450e+01  1.577070e+01  # Hw PSPC
    289      97    1   1.3473  1.428350e+01  7.070770e+00  4.277509e+00  # Ow PSPC DC
    290      97    2   0.3345  1.456510e+01  7.928329e+00  4.678329e+00  # Hw PSPC
    291      97    2   0.3345  1.470520e+01  7.036889e+00  3.386209e+00  # Hw PSPC
    292      98    1   1.3473  5.952610e-01  1.456910e+01  1.642950e+01  # Ow PSPC DC
    293      98    2   0.3345 -1.302020e-01  1.466440e+01  1.709130e+01  # Hw PSPC
    294      98    2   0.3345  1.649300e-01  1.463440e+01  1.554340e+01  # Hw PSPC
    295      99    1   1.3473  1.141220e+01  1.722810e+00  1.903310e+01  # Ow PSPC DC
    296      99    2   0.3345  1.079960e+01  9.887100e-01  1.878410e+01  # Hw PSPC
    297      99    2   0.3345  1.133680e+01  1.816000e+00  2.001334e+01  # Hw PSPC
    298     100    1   1.3473  1.364910e+01  1.345500e+01  5.183250e+00  # Ow PSPC DC
    299     100    2   0.3345  1.439960e+01  1.316410e+01  4.608640e+00  # Hw PSPC
    300     100    2   0.3345  1.283150e+01  1.310710e+01  4.756540e+00  # Hw PSPC
    301     101    1   1.3473  8.171660e+00  1.381720e+01  1.545560e+01  # Ow PSPC DC
    302     101    2   0.3345  7.221570e+00  1.399530e+01  1.565430e+01  # Hw PSPC
    303     101    2   0.3345  8.543660e+00  1.466990e+01  1.512430e+01  # Hw PSPC
    304     102    1   1.3473  1.817810e+01  6.025650e+00  5.060960e+00  # Ow PSPC DC
    305     102    2   0.3345  1.768370e+01  5.508450e+00  4.383300e+00  # Hw PSPC
    306     102    2   0.3345  1.835100e+01  6.910090e+00  4.655840e+00  # Hw PSPC
    307     103    1   1.3473  7.797050e+00  1.706380e+01  5.899810e+00  # Ow PSPC DC
    308     103    2   0.3345  7.127880e+00  1.646320e+01  6.314650e+00  # Hw PSPC
    309     103    2   0.3345  7.280640e+00  1.781920e+01  5.526130e+00  # Hw PSPC
    310     104    1   1.3473  9.879240e-01  1.261160e+01  2.411960e-01  # Ow PSPC DC
    311     104    2   0.3345  1.699000e-03  1.261900e+01  2.223530e-01  # Hw PSPC
    312     104    2   0.3345  1.246040e+00  1.173560e+01  6.160740e-01  # Hw PSPC
    313     105    1   1.3473  6.095460e+00  9.454910e+00  1.546500e+01  # Ow PSPC DC
    314     105    2   0.3345  6.510839e+00  1.027410e+01  1.510590e+01  # Hw PSPC
    315     105    2   0.3345  5.393420e+00  9.757960e+00  1.609040e+01  # Hw PSPC
    316     106    1   1.3473  1.693950e+01  1.386220e+01  9.395890e+00  # Ow PSPC DC
    317     106    2   0.3345  1.761250e+01  1.458030e+01  9.315110e+00  # Hw PSPC
    318     106    2   0.3345  1.638620e+01  1.391570e+01  8.581180e+00  # Hw PSPC
    319     107    1   1.3473  4.955220e+00  1.432880e+01  7.518070e+00  # Ow PSPC DC
    320     107    2   0.3345  4.738260e+00  1.366520e+01  8.214680e+00  # Hw PSPC
    321     107    2   0.3345  5.185360e+00  1.516040e+01  7.994460e+00  # Hw PSPC
    322     108    1   1.3473  1.743960e+01  1.758430e+01  1.458550e+01  # Ow PSPC DC
    323     108    2   0.3345  1.739150e+01  1.785740e+01  1.553110e+01  # Hw PSPC
    324     108    2   0.3345  1.652010e+01  1.734710e+01  1.432100e+01  # Hw PSPC
    325     109    1   1.3473  1.831890e+01  1.483600e+01  1.851560e+01  # Ow PSPC DC
    326     109    2   0.3345  1.744870e+01  1.436920e+01  1.851470e+01  # Hw PSPC
    327     109    2   0.3345  1.855850e+01  1.496170e+01  1.946400e+01  # Hw PSPC
    328     110    1   1.3473  3.946640e+00  1.537409e+00  9.170230e+00  # Ow PSPC DC
    329     110    2   0.3345  4.131290e+00  1.778320e+00  1.011030e+01  # Hw PSPC
    330     110    2   0.3345  3.560580e+00  2.344930e+00  8.754890e+00  # Hw PSPC
    331     111    1   1.3473  1.915390e+00  8.095750e+00  2.859260e+00  # Ow PSPC DC
    332     111    2   0.3345  1.592660e+00  7.209869e+00  2.568030e+00  # Hw PSPC
    333     111    2   0.3345  2.812289e+00  8.202389e+00  2.460950e+00  # Hw PSPC
    334     112    1   1.3473  1.859340e+01  1.217760e+00  8.335679e+00  # Ow PSPC DC
    335     112    2   0.3345  1.909830e+01  1.481780e+00  7.529900e+00  # Hw PSPC
    336     112    2   0.3345  1.802020e+01  1.987950e+00  8.562060e+00  # Hw PSPC
    337     113    1   1.3473  1.539010e+01  1.210680e+01  1.541870e+01  # Ow PSPC DC
    338     113    2   0.3345  1.486380e+01  1.135380e+01  1.578350e+01  # Hw PSPC
    339     113    2   0.3345  1.475790e+01  1.285820e+01  1.532570e+01  # Hw PSPC
    340     114    1   1.3473  1.785900e+01  1.061970e+00  1.265170e+01  # Ow PSPC DC
    341     114    2   0.3345  1.787900e+01  8.469100e-02  1.278060e+01  # Hw PSPC
    342     114    2   0.3345  1.879570e+01  1.336280e+00  1.250230e+01  # Hw PSPC
    343     115    1   1.3473  1.077860e+01 -6.590010e-01  1.542580e+01  # Ow PSPC DC
    344     115    2   0.3345  1.134640e+01 -9.914020e-01  1.616240e+01  # Hw PSPC
    345     115    2   0.3345  1.023760e+01  7.237600e-02  1.581220e+01  # Hw PSPC
    346     116    1   1.3473  4.399240e+00  8.041310e+00  1.896800e+01  # Ow PSPC DC
    347     116    2   0.3345  4.416600e+00  7.488880e+00  1.815170e+01  # Hw PSPC
    348     116    2   0.3345  4.869140e+00  8.879849e+00  1.873880e+01  # Hw PSPC
    349     117    1   1.3473  1.476070e+01  1.268350e+01  1.071570e+01  # Ow PSPC DC
    350     117    2   0.3345  1.512280e+01  1.176560e+01  1.072350e+01  # Hw PSPC
    351     117    2   0.3345  1.553060e+01  1.327770e+01  1.054630e+01  # Hw PSPC
    352     118    1   1.3473  2.313110e+00  1.160880e+01  4.959070e+00  # Ow PSPC DC